# productionInt
# Reaction    	CH4		CH2O		CH3O		H		O2		H2		O		OH		H2O		HO2		H2O2		C		CH		CH2		CH2(S)		CH3		CO		CO2		HCO		CH2OH		CH3OH		C2H		C2H2		C2H3		C2H4		C2H5		C2H6		HCCO		CH2CO		HCCOH		N		NH		NH2		NH3		NNH		NO		NO2		N2O		HNO		CN		HCN		H2CN		HCNN		HCNO		HOCN		HNCO		NCO		N2		AR		C3H7		C3H8		CH2CHO		CH3CHO	

start time : 0.000000e+00	end time :1.000000e-02
0	3.099737e-12	5.801536e-12	5.996290e-12	1.947539e-13	6.182614e-12	3.895077e-13	3.091307e-12	3.286061e-12	3.480815e-12	6.377368e-12	6.572122e-12	2.320722e-12	2.515475e-12	2.710229e-12	2.710229e-12	2.904983e-12	5.412029e-12	8.503336e-12	5.606783e-12	5.996290e-12	6.191044e-12	4.836197e-12	5.030951e-12	5.225705e-12	5.420459e-12	5.615213e-12	5.809966e-12	7.927504e-12	8.122258e-12	8.122258e-12	2.706290e-12	2.901044e-12	3.095797e-12	3.290551e-12	5.607333e-12	5.797597e-12	8.888904e-12	8.503887e-12	5.992351e-12	5.027011e-12	5.221765e-12	5.416519e-12	7.928055e-12	8.313072e-12	8.313072e-12	8.313072e-12	8.118318e-12	5.412579e-12	7.718511e-12	8.325442e-12	8.520196e-12	8.317012e-12	8.511766e-12	
1	3.602878e-10	6.743226e-10	6.969592e-10	2.263658e-11	7.186160e-10	4.527316e-11	3.593080e-10	3.819446e-10	4.045811e-10	7.412525e-10	7.638891e-10	2.697415e-10	2.923781e-10	3.150146e-10	3.150146e-10	3.376512e-10	6.290495e-10	9.883575e-10	6.516860e-10	6.969592e-10	7.195958e-10	5.621196e-10	5.847561e-10	6.073927e-10	6.300293e-10	6.526659e-10	6.753025e-10	9.214275e-10	9.440641e-10	9.440641e-10	3.145567e-10	3.371933e-10	3.598299e-10	3.824665e-10	6.517501e-10	6.738647e-10	1.033173e-09	9.884215e-10	6.965013e-10	5.842982e-10	6.069348e-10	6.295714e-10	9.214915e-10	9.662428e-10	9.662428e-10	9.662428e-10	9.436062e-10	6.291135e-10	8.971358e-10	9.676805e-10	9.903171e-10	9.667007e-10	9.893373e-10	
2	2.211464e-11	4.139026e-11	4.277970e-11	1.389444e-12	4.410900e-11	2.778889e-12	2.205450e-11	2.344395e-11	2.483339e-11	4.549845e-11	4.688789e-11	1.655687e-11	1.794631e-11	1.933576e-11	1.933576e-11	2.072520e-11	3.861137e-11	6.066587e-11	4.000081e-11	4.277970e-11	4.416915e-11	3.450318e-11	3.589262e-11	3.728207e-11	3.867151e-11	4.006096e-11	4.145040e-11	5.655768e-11	5.794712e-11	5.794712e-11	1.930765e-11	2.069709e-11	2.208654e-11	2.347598e-11	4.000474e-11	4.136215e-11	6.341665e-11	6.066980e-11	4.275160e-11	3.586452e-11	3.725396e-11	3.864340e-11	5.656161e-11	5.930846e-11	5.930846e-11	5.930846e-11	5.791902e-11	3.861530e-11	5.506664e-11	5.939671e-11	6.078616e-11	5.933657e-11	6.072601e-11	
3	4.408516e-27	8.251075e-27	8.528059e-27	2.769833e-28	8.793053e-27	5.539666e-28	4.396526e-27	4.673510e-27	4.950493e-27	9.070036e-27	9.347019e-27	3.300582e-27	3.577566e-27	3.854549e-27	3.854549e-27	4.131532e-27	7.697109e-27	1.209364e-26	7.974092e-27	8.528059e-27	8.805042e-27	6.878148e-27	7.155131e-27	7.432115e-27	7.709098e-27	7.986081e-27	8.263065e-27	1.127467e-26	1.155166e-26	1.155166e-26	3.848946e-27	4.125929e-27	4.402913e-27	4.679896e-27	7.974875e-27	8.245472e-27	1.264200e-26	1.209442e-26	8.522456e-27	7.149528e-27	7.426512e-27	7.703495e-27	1.127546e-26	1.182304e-26	1.182304e-26	1.182304e-26	1.154605e-26	7.697892e-27	1.097744e-26	1.184063e-26	1.211761e-26	1.182864e-26	1.210562e-26	
4	5.874400e-18	1.099466e-17	1.136374e-17	3.690836e-19	1.171685e-17	7.381671e-19	5.858424e-18	6.227508e-18	6.596591e-18	1.208593e-17	1.245502e-17	4.398066e-18	4.767149e-18	5.136233e-18	5.136233e-18	5.505316e-18	1.025649e-17	1.611491e-17	1.062557e-17	1.136374e-17	1.173282e-17	9.165215e-18	9.534298e-18	9.903382e-18	1.027247e-17	1.064155e-17	1.101063e-17	1.502364e-17	1.539272e-17	1.539272e-17	5.128767e-18	5.497850e-18	5.866934e-18	6.236017e-18	1.062662e-17	1.098719e-17	1.684561e-17	1.611596e-17	1.135627e-17	9.526832e-18	9.895916e-18	1.026500e-17	1.502468e-17	1.575434e-17	1.575434e-17	1.575434e-17	1.538526e-17	1.025753e-17	1.462757e-17	1.577778e-17	1.614687e-17	1.576181e-17	1.613089e-17	
5	1.469819e-19	2.750946e-19	2.843294e-19	9.234750e-21	2.931644e-19	1.846950e-20	1.465822e-19	1.558169e-19	1.650517e-19	3.023991e-19	3.116339e-19	1.100429e-19	1.192777e-19	1.285124e-19	1.285124e-19	1.377472e-19	2.566251e-19	4.032073e-19	2.658599e-19	2.843294e-19	2.935641e-19	2.293206e-19	2.385553e-19	2.477901e-19	2.570248e-19	2.662596e-19	2.754943e-19	3.759028e-19	3.851375e-19	3.851375e-19	1.283256e-19	1.375604e-19	1.467951e-19	1.560299e-19	2.658860e-19	2.749078e-19	4.214900e-19	4.032334e-19	2.841426e-19	2.383685e-19	2.476033e-19	2.568380e-19	3.759289e-19	3.941855e-19	3.941855e-19	3.941855e-19	3.849507e-19	2.566512e-19	3.659928e-19	3.947720e-19	4.040068e-19	3.943723e-19	4.036070e-19	
6	1.469819e-19	2.750946e-19	2.843294e-19	9.234750e-21	2.931644e-19	1.846950e-20	1.465822e-19	1.558169e-19	1.650517e-19	3.023991e-19	3.116339e-19	1.100429e-19	1.192777e-19	1.285124e-19	1.285124e-19	1.377472e-19	2.566251e-19	4.032073e-19	2.658599e-19	2.843294e-19	2.935641e-19	2.293206e-19	2.385553e-19	2.477901e-19	2.570248e-19	2.662596e-19	2.754943e-19	3.759028e-19	3.851375e-19	3.851375e-19	1.283256e-19	1.375604e-19	1.467951e-19	1.560299e-19	2.658860e-19	2.749078e-19	4.214900e-19	4.032334e-19	2.841426e-19	2.383685e-19	2.476033e-19	2.568380e-19	3.759289e-19	3.941855e-19	3.941855e-19	3.941855e-19	3.849507e-19	2.566512e-19	3.659928e-19	3.947720e-19	4.040068e-19	3.943723e-19	4.036070e-19	
7	1.825773e-09	3.417158e-09	3.531870e-09	1.147118e-10	3.641616e-09	2.294236e-10	1.820808e-09	1.935520e-09	2.050232e-09	3.756328e-09	3.871040e-09	1.366926e-09	1.481638e-09	1.596350e-09	1.596350e-09	1.711062e-09	3.187734e-09	5.008542e-09	3.302446e-09	3.531870e-09	3.646581e-09	2.848564e-09	2.963276e-09	3.077988e-09	3.192700e-09	3.307411e-09	3.422123e-09	4.669372e-09	4.784084e-09	4.784084e-09	1.594029e-09	1.708741e-09	1.823453e-09	1.938165e-09	3.302770e-09	3.414837e-09	5.235645e-09	5.008867e-09	3.529549e-09	2.960955e-09	3.075667e-09	3.190379e-09	4.669697e-09	4.896475e-09	4.896475e-09	4.896475e-09	4.781764e-09	3.188059e-09	4.546273e-09	4.903761e-09	5.018473e-09	4.898796e-09	5.013508e-09	
8	3.175371e-06	5.943095e-06	6.142601e-06	1.995059e-07	6.333471e-06	3.990118e-07	3.166736e-06	3.366241e-06	3.565747e-06	6.532977e-06	6.732483e-06	2.377348e-06	2.576854e-06	2.776359e-06	2.776359e-06	2.975865e-06	5.544083e-06	8.710819e-06	5.743589e-06	6.142601e-06	6.342107e-06	4.954201e-06	5.153707e-06	5.353213e-06	5.552719e-06	5.752225e-06	5.951731e-06	8.120937e-06	8.320443e-06	8.320443e-06	2.772324e-06	2.971830e-06	3.171335e-06	3.370841e-06	5.744153e-06	5.939059e-06	9.105795e-06	8.711383e-06	6.138565e-06	5.149671e-06	5.349177e-06	5.548683e-06	8.121501e-06	8.515913e-06	8.515913e-06	8.515913e-06	8.316407e-06	5.544647e-06	7.906843e-06	8.528584e-06	8.728090e-06	8.519948e-06	8.719454e-06	
9	5.851643e-16	1.095206e-15	1.131972e-15	3.676538e-17	1.167146e-15	7.353075e-17	5.835729e-16	6.203382e-16	6.571036e-16	1.203911e-15	1.240676e-15	4.381028e-16	4.748681e-16	5.116335e-16	5.116335e-16	5.483989e-16	1.021676e-15	1.605248e-15	1.058441e-15	1.131972e-15	1.168737e-15	9.129709e-16	9.497363e-16	9.865016e-16	1.023267e-15	1.060032e-15	1.096798e-15	1.496544e-15	1.533309e-15	1.533309e-15	5.108898e-16	5.476552e-16	5.844205e-16	6.211859e-16	1.058545e-15	1.094463e-15	1.678036e-15	1.605352e-15	1.131228e-15	9.489925e-16	9.857579e-16	1.022523e-15	1.496648e-15	1.569331e-15	1.569331e-15	1.569331e-15	1.532565e-15	1.021780e-15	1.457090e-15	1.571666e-15	1.608431e-15	1.570075e-15	1.606840e-15	
10	5.851643e-16	1.095206e-15	1.131972e-15	3.676538e-17	1.167146e-15	7.353075e-17	5.835729e-16	6.203382e-16	6.571036e-16	1.203911e-15	1.240676e-15	4.381028e-16	4.748681e-16	5.116335e-16	5.116335e-16	5.483989e-16	1.021676e-15	1.605248e-15	1.058441e-15	1.131972e-15	1.168737e-15	9.129709e-16	9.497363e-16	9.865016e-16	1.023267e-15	1.060032e-15	1.096798e-15	1.496544e-15	1.533309e-15	1.533309e-15	5.108898e-16	5.476552e-16	5.844205e-16	6.211859e-16	1.058545e-15	1.094463e-15	1.678036e-15	1.605352e-15	1.131228e-15	9.489925e-16	9.857579e-16	1.022523e-15	1.496648e-15	1.569331e-15	1.569331e-15	1.569331e-15	1.532565e-15	1.021780e-15	1.457090e-15	1.571666e-15	1.608431e-15	1.570075e-15	1.606840e-15	
11	4.262836e-09	7.978418e-09	8.246248e-09	2.678304e-10	8.502486e-09	5.356607e-10	4.251243e-09	4.519073e-09	4.786903e-09	8.770316e-09	9.038146e-09	3.191514e-09	3.459345e-09	3.727175e-09	3.727175e-09	3.995005e-09	7.442757e-09	1.169400e-08	7.710587e-09	8.246248e-09	8.514079e-09	6.650859e-09	6.918689e-09	7.186520e-09	7.454350e-09	7.722181e-09	7.990011e-09	1.090210e-08	1.116993e-08	1.116993e-08	3.721757e-09	3.989588e-09	4.257418e-09	4.525248e-09	7.711345e-09	7.973000e-09	1.222424e-08	1.169476e-08	8.240830e-09	6.913272e-09	7.181102e-09	7.448932e-09	1.090286e-08	1.143234e-08	1.143234e-08	1.143234e-08	1.116451e-08	7.443514e-09	1.061469e-08	1.144936e-08	1.171719e-08	1.143776e-08	1.170559e-08	
12	1.005972e-18	1.882799e-18	1.946003e-18	6.320435e-20	2.006472e-18	1.264087e-19	1.003236e-18	1.066440e-18	1.129645e-18	2.069676e-18	2.132881e-18	7.531543e-19	8.163587e-19	8.795631e-19	8.795631e-19	9.427674e-19	1.756390e-18	2.759626e-18	1.819595e-18	1.946003e-18	2.009208e-18	1.569513e-18	1.632717e-18	1.695922e-18	1.759126e-18	1.822330e-18	1.885535e-18	2.572749e-18	2.635953e-18	2.635953e-18	8.782845e-19	9.414889e-19	1.004693e-18	1.067898e-18	1.819773e-18	1.881520e-18	2.884756e-18	2.759805e-18	1.944725e-18	1.631439e-18	1.694643e-18	1.757848e-18	2.572928e-18	2.697879e-18	2.697879e-18	2.697879e-18	2.634675e-18	1.756569e-18	2.504923e-18	2.701894e-18	2.765098e-18	2.699158e-18	2.762362e-18	
13	5.019947e-14	9.395443e-14	9.710842e-14	3.153990e-15	1.001259e-13	6.307980e-15	5.006295e-14	5.321694e-14	5.637093e-14	1.032799e-13	1.064339e-13	3.758351e-14	4.073750e-14	4.389149e-14	4.389149e-14	4.704548e-14	8.764645e-14	1.377094e-13	9.080044e-14	9.710842e-14	1.002624e-13	7.832100e-14	8.147499e-14	8.462898e-14	8.778297e-14	9.093696e-14	9.409095e-14	1.283840e-13	1.315379e-13	1.315379e-13	4.382769e-14	4.698168e-14	5.013567e-14	5.328966e-14	9.080936e-14	9.389063e-14	1.439536e-13	1.377183e-13	9.704462e-14	8.141119e-14	8.456518e-14	8.771917e-14	1.283929e-13	1.346281e-13	1.346281e-13	1.346281e-13	1.314741e-13	8.765537e-14	1.249994e-13	1.348285e-13	1.379824e-13	1.346919e-13	1.378459e-13	
14	1.401065e-11	2.622265e-11	2.710293e-11	8.802775e-13	2.794510e-11	1.760555e-12	1.397255e-11	1.485283e-11	1.573311e-11	2.882538e-11	2.970566e-11	1.048954e-11	1.136982e-11	1.225010e-11	1.225010e-11	1.313038e-11	2.446209e-11	3.843464e-11	2.534237e-11	2.710293e-11	2.798320e-11	2.185936e-11	2.273964e-11	2.361992e-11	2.450020e-11	2.538047e-11	2.626075e-11	3.583192e-11	3.671219e-11	3.671219e-11	1.223229e-11	1.311257e-11	1.399285e-11	1.487312e-11	2.534486e-11	2.620484e-11	4.017739e-11	3.843713e-11	2.708512e-11	2.272183e-11	2.360211e-11	2.448239e-11	3.583440e-11	3.757466e-11	3.757466e-11	3.757466e-11	3.669439e-11	2.446458e-11	3.488727e-11	3.763057e-11	3.851085e-11	3.759247e-11	3.847275e-11	
15	1.798848e-12	3.366763e-12	3.479783e-12	1.130201e-13	3.587911e-12	2.260402e-13	1.793956e-12	1.906976e-12	2.019996e-12	3.700931e-12	3.813951e-12	1.346767e-12	1.459787e-12	1.572808e-12	1.572808e-12	1.685828e-12	3.140723e-12	4.934678e-12	3.253743e-12	3.479783e-12	3.592803e-12	2.806555e-12	2.919575e-12	3.032595e-12	3.145615e-12	3.258635e-12	3.371655e-12	4.600510e-12	4.713530e-12	4.713530e-12	1.570521e-12	1.683541e-12	1.796561e-12	1.909581e-12	3.254063e-12	3.364477e-12	5.158432e-12	4.934998e-12	3.477497e-12	2.917289e-12	3.030309e-12	3.143329e-12	4.600830e-12	4.824264e-12	4.824264e-12	4.824264e-12	4.711244e-12	3.141042e-12	4.479227e-12	4.831443e-12	4.944463e-12	4.826551e-12	4.939571e-12	
16	9.477730e-28	1.773873e-27	1.833421e-27	5.954777e-29	1.890391e-27	1.190955e-28	9.451954e-28	1.004743e-27	1.064291e-27	1.949939e-27	2.009486e-27	7.095819e-28	7.691296e-28	8.286774e-28	8.286774e-28	8.882252e-28	1.654777e-27	2.599973e-27	1.714325e-27	1.833421e-27	1.892968e-27	1.478711e-27	1.538259e-27	1.597807e-27	1.657355e-27	1.716903e-27	1.776450e-27	2.423907e-27	2.483455e-27	2.483455e-27	8.274728e-28	8.870206e-28	9.465684e-28	1.006116e-27	1.714493e-27	1.772668e-27	2.717864e-27	2.600141e-27	1.832216e-27	1.537055e-27	1.596602e-27	1.656150e-27	2.424075e-27	2.541798e-27	2.541798e-27	2.541798e-27	2.482250e-27	1.654946e-27	2.360005e-27	2.545580e-27	2.605128e-27	2.543002e-27	2.602550e-27	
17	6.351614e-17	1.188782e-16	1.228689e-16	3.990665e-18	1.266868e-16	7.981330e-18	6.334340e-17	6.733407e-17	7.132473e-17	1.306775e-16	1.346681e-16	4.755348e-17	5.154414e-17	5.553481e-17	5.553481e-17	5.952547e-17	1.108969e-16	1.742403e-16	1.148875e-16	1.228689e-16	1.268595e-16	9.909762e-17	1.030883e-16	1.070789e-16	1.110696e-16	1.150603e-16	1.190509e-16	1.624410e-16	1.664317e-16	1.664317e-16	5.545408e-17	5.944475e-17	6.343541e-17	6.742608e-17	1.148988e-16	1.187975e-16	1.821409e-16	1.742516e-16	1.227881e-16	1.030076e-16	1.069982e-16	1.109889e-16	1.624523e-16	1.703416e-16	1.703416e-16	1.703416e-16	1.663510e-16	1.109082e-16	1.581586e-16	1.705951e-16	1.745857e-16	1.704223e-16	1.744130e-16	
18	1.564850e-20	2.928808e-20	3.027126e-20	9.831821e-22	3.121189e-20	1.966364e-21	1.560594e-20	1.658913e-20	1.757231e-20	3.219507e-20	3.317825e-20	1.171577e-20	1.269896e-20	1.368214e-20	1.368214e-20	1.466532e-20	2.732172e-20	4.292766e-20	2.830490e-20	3.027126e-20	3.125445e-20	2.441473e-20	2.539791e-20	2.638109e-20	2.736427e-20	2.834746e-20	2.933064e-20	4.002067e-20	4.100386e-20	4.100386e-20	1.366225e-20	1.464543e-20	1.562861e-20	1.661180e-20	2.830768e-20	2.926819e-20	4.487414e-20	4.293044e-20	3.025138e-20	2.537802e-20	2.636120e-20	2.734439e-20	4.002345e-20	4.196715e-20	4.196715e-20	4.196715e-20	4.098397e-20	2.732450e-20	3.896560e-20	4.202959e-20	4.301278e-20	4.198704e-20	4.297022e-20	
19	3.265200e-17	6.111220e-17	6.316370e-17	2.051497e-18	6.512640e-17	4.102995e-18	3.256320e-17	3.461470e-17	3.666620e-17	6.717790e-17	6.922940e-17	2.444601e-17	2.649751e-17	2.854900e-17	2.854900e-17	3.060050e-17	5.700921e-17	8.957241e-17	5.906071e-17	6.316370e-17	6.521520e-17	5.094352e-17	5.299501e-17	5.504651e-17	5.709801e-17	5.914951e-17	6.120100e-17	8.350672e-17	8.555821e-17	8.555821e-17	2.850750e-17	3.055900e-17	3.261050e-17	3.466200e-17	5.906651e-17	6.107070e-17	9.363391e-17	8.957821e-17	6.312220e-17	5.295351e-17	5.500501e-17	5.705651e-17	8.351252e-17	8.756821e-17	8.756821e-17	8.756821e-17	8.551671e-17	5.701501e-17	8.130522e-17	8.769851e-17	8.975001e-17	8.760971e-17	8.966121e-17	
20	4.461700e-20	8.350616e-20	8.630941e-20	2.803248e-21	8.899132e-20	5.606496e-21	4.449566e-20	4.729891e-20	5.010215e-20	9.179456e-20	9.459781e-20	3.340400e-20	3.620725e-20	3.901050e-20	3.901050e-20	4.181375e-20	7.789966e-20	1.223953e-19	8.070291e-20	8.630941e-20	8.911265e-20	6.961126e-20	7.241450e-20	7.521775e-20	7.802100e-20	8.082425e-20	8.362750e-20	1.141069e-19	1.169102e-19	1.169102e-19	3.895379e-20	4.175704e-20	4.456029e-20	4.736354e-20	8.071084e-20	8.344945e-20	1.279451e-19	1.224032e-19	8.625270e-20	7.235780e-20	7.516105e-20	7.796429e-20	1.141148e-19	1.196567e-19	1.196567e-19	1.196567e-19	1.168535e-19	7.790759e-20	1.110987e-19	1.198347e-19	1.226380e-19	1.197134e-19	1.225167e-19	
21	3.230393e-12	6.046076e-12	6.249038e-12	2.029629e-13	6.443216e-12	4.059258e-13	3.221608e-12	3.424571e-12	3.627534e-12	6.646179e-12	6.849142e-12	2.418542e-12	2.621505e-12	2.824468e-12	2.824468e-12	3.027430e-12	5.640150e-12	8.861758e-12	5.843113e-12	6.249038e-12	6.452001e-12	5.040046e-12	5.243009e-12	5.445972e-12	5.648935e-12	5.851898e-12	6.054861e-12	8.261655e-12	8.464617e-12	8.464617e-12	2.820362e-12	3.023325e-12	3.226288e-12	3.429250e-12	5.843687e-12	6.041970e-12	9.263578e-12	8.862332e-12	6.244933e-12	5.238904e-12	5.441867e-12	5.644829e-12	8.262228e-12	8.663475e-12	8.663475e-12	8.663475e-12	8.460512e-12	5.640724e-12	8.043852e-12	8.676366e-12	8.879328e-12	8.667580e-12	8.870543e-12	
22	1.570190e-15	2.938801e-15	3.037455e-15	9.865368e-17	3.131839e-15	1.973074e-16	1.565919e-15	1.664573e-15	1.763227e-15	3.230492e-15	3.329146e-15	1.175575e-15	1.274228e-15	1.372882e-15	1.372882e-15	1.471536e-15	2.741494e-15	4.307413e-15	2.840148e-15	3.037455e-15	3.136109e-15	2.449803e-15	2.548457e-15	2.647111e-15	2.745764e-15	2.844418e-15	2.943072e-15	4.015723e-15	4.114376e-15	4.114376e-15	1.370887e-15	1.469540e-15	1.568194e-15	1.666848e-15	2.840427e-15	2.936806e-15	4.502725e-15	4.307692e-15	3.035459e-15	2.546461e-15	2.645115e-15	2.743769e-15	4.016002e-15	4.211034e-15	4.211034e-15	4.211034e-15	4.112381e-15	2.741773e-15	3.909856e-15	4.217300e-15	4.315954e-15	4.213030e-15	4.311684e-15	
23	3.976155e-10	7.441859e-10	7.691677e-10	2.498184e-11	7.930682e-10	4.996369e-11	3.965341e-10	4.215160e-10	4.464978e-10	8.180501e-10	8.430319e-10	2.976881e-10	3.226699e-10	3.476518e-10	3.476518e-10	3.726336e-10	6.942222e-10	1.090756e-09	7.192041e-10	7.691677e-10	7.941496e-10	6.203580e-10	6.453399e-10	6.703217e-10	6.953036e-10	7.202854e-10	7.452672e-10	1.016892e-09	1.041874e-09	1.041874e-09	3.471464e-10	3.721283e-10	3.971101e-10	4.220920e-10	7.192747e-10	7.436805e-10	1.140215e-09	1.090827e-09	7.686624e-10	6.448345e-10	6.698164e-10	6.947982e-10	1.016963e-09	1.066350e-09	1.066350e-09	1.066350e-09	1.041369e-09	6.942928e-10	9.900837e-10	1.067937e-09	1.092919e-09	1.066856e-09	1.091838e-09	
24	6.256736e-24	1.171025e-23	1.210335e-23	3.931054e-25	1.247944e-23	7.862109e-25	6.239721e-24	6.632826e-24	7.025932e-24	1.287255e-23	1.326565e-23	4.684315e-24	5.077420e-24	5.470525e-24	5.470525e-24	5.863631e-24	1.092404e-23	1.716376e-23	1.131714e-23	1.210335e-23	1.249646e-23	9.761734e-24	1.015484e-23	1.054795e-23	1.094105e-23	1.133416e-23	1.172726e-23	1.600146e-23	1.639456e-23	1.639456e-23	5.462573e-24	5.855679e-24	6.248784e-24	6.641890e-24	1.131825e-23	1.170229e-23	1.794201e-23	1.716487e-23	1.209540e-23	1.014689e-23	1.053999e-23	1.093310e-23	1.600257e-23	1.677971e-23	1.677971e-23	1.677971e-23	1.638661e-23	1.092515e-23	1.557961e-23	1.680468e-23	1.719779e-23	1.678767e-23	1.718077e-23	
25	9.878689e-18	1.848917e-17	1.910984e-17	6.206697e-19	1.970365e-17	1.241339e-18	9.851823e-18	1.047249e-17	1.109316e-17	2.032432e-17	2.094499e-17	7.396010e-18	8.016680e-18	8.637350e-18	8.637350e-18	9.258019e-18	1.724783e-17	2.709966e-17	1.786850e-17	1.910984e-17	1.973051e-17	1.541269e-17	1.603336e-17	1.665403e-17	1.727470e-17	1.789537e-17	1.851604e-17	2.526451e-17	2.588518e-17	2.588518e-17	8.624794e-18	9.245464e-18	9.866133e-18	1.048680e-17	1.787026e-17	1.847662e-17	2.832844e-17	2.710141e-17	1.909729e-17	1.602080e-17	1.664147e-17	1.726214e-17	2.526627e-17	2.649330e-17	2.649330e-17	2.649330e-17	2.587263e-17	1.724959e-17	2.459846e-17	2.653272e-17	2.715339e-17	2.650585e-17	2.712652e-17	
26	4.907079e-17	9.184198e-17	9.492506e-17	3.083076e-18	9.787468e-17	6.166153e-18	4.893734e-17	5.202042e-17	5.510349e-17	1.009578e-16	1.040408e-16	3.673849e-17	3.982156e-17	4.290464e-17	4.290464e-17	4.598772e-17	8.567583e-17	1.346132e-16	8.875891e-17	9.492506e-17	9.800814e-17	7.656005e-17	7.964313e-17	8.272620e-17	8.580928e-17	8.889236e-17	9.197543e-17	1.254974e-16	1.285805e-16	1.285805e-16	4.284227e-17	4.592535e-17	4.900843e-17	5.209150e-17	8.876762e-17	9.177962e-17	1.407170e-16	1.346219e-16	9.486269e-17	7.958076e-17	8.266384e-17	8.574691e-17	1.255061e-16	1.316012e-16	1.316012e-16	1.316012e-16	1.285181e-16	8.568455e-17	1.221889e-16	1.317970e-16	1.348801e-16	1.316635e-16	1.347466e-16	
27	1.410966e-11	2.640796e-11	2.729446e-11	8.864983e-13	2.814259e-11	1.772997e-12	1.407129e-11	1.495779e-11	1.584429e-11	2.902908e-11	2.991558e-11	1.056367e-11	1.145017e-11	1.233667e-11	1.233667e-11	1.322317e-11	2.463496e-11	3.870626e-11	2.552146e-11	2.729446e-11	2.818096e-11	2.201384e-11	2.290034e-11	2.378684e-11	2.467334e-11	2.555983e-11	2.644633e-11	3.608513e-11	3.697163e-11	3.697163e-11	1.231874e-11	1.320523e-11	1.409173e-11	1.497823e-11	2.552397e-11	2.639003e-11	4.046132e-11	3.870876e-11	2.727653e-11	2.288241e-11	2.376891e-11	2.465540e-11	3.608764e-11	3.784020e-11	3.784020e-11	3.784020e-11	3.695370e-11	2.463747e-11	3.513382e-11	3.789650e-11	3.878300e-11	3.785813e-11	3.874463e-11	
28	1.006090e-06	1.883021e-06	1.946233e-06	6.321181e-08	2.006709e-06	1.264236e-07	1.003354e-06	1.066566e-06	1.129778e-06	2.069920e-06	2.133132e-06	7.532431e-07	8.164550e-07	8.796668e-07	8.796668e-07	9.428786e-07	1.756597e-06	2.759952e-06	1.819809e-06	1.946233e-06	2.009445e-06	1.569698e-06	1.632910e-06	1.696122e-06	1.759334e-06	1.822545e-06	1.885757e-06	2.573052e-06	2.636264e-06	2.636264e-06	8.783881e-07	9.415999e-07	1.004812e-06	1.068023e-06	1.819988e-06	1.881742e-06	2.885097e-06	2.760130e-06	1.944954e-06	1.631631e-06	1.694843e-06	1.758055e-06	2.573231e-06	2.698197e-06	2.698197e-06	2.698197e-06	2.634985e-06	1.756776e-06	2.505219e-06	2.702212e-06	2.765424e-06	2.699476e-06	2.762688e-06	
29	1.338540e-06	2.505241e-06	2.589341e-06	8.409934e-08	2.669800e-06	1.681987e-07	1.334900e-06	1.418999e-06	1.503099e-06	2.753899e-06	2.837998e-06	1.002143e-06	1.086242e-06	1.170341e-06	1.170341e-06	1.254441e-06	2.337043e-06	3.671942e-06	2.421142e-06	2.589341e-06	2.673440e-06	2.088385e-06	2.172484e-06	2.256583e-06	2.340683e-06	2.424782e-06	2.508881e-06	3.423285e-06	3.507384e-06	3.507384e-06	1.168640e-06	1.252740e-06	1.336839e-06	1.420938e-06	2.421380e-06	2.503540e-06	3.838440e-06	3.672180e-06	2.587639e-06	2.170783e-06	2.254882e-06	2.338982e-06	3.423522e-06	3.589782e-06	3.589782e-06	3.589782e-06	3.505683e-06	2.337280e-06	3.333036e-06	3.595124e-06	3.679223e-06	3.591483e-06	3.675583e-06	
30	1.195093e-09	2.236762e-09	2.311848e-09	7.508665e-11	2.383685e-09	1.501733e-10	1.191842e-09	1.266929e-09	1.342016e-09	2.458772e-09	2.533858e-09	8.947459e-10	9.698326e-10	1.044919e-09	1.044919e-09	1.120006e-09	2.086588e-09	3.278431e-09	2.161675e-09	2.311848e-09	2.386935e-09	1.864579e-09	1.939665e-09	2.014752e-09	2.089838e-09	2.164925e-09	2.240012e-09	3.056421e-09	3.131508e-09	3.131508e-09	1.043400e-09	1.118487e-09	1.193574e-09	1.268660e-09	2.161887e-09	2.235243e-09	3.427085e-09	3.278643e-09	2.310329e-09	1.938146e-09	2.013233e-09	2.088320e-09	3.056633e-09	3.205075e-09	3.205075e-09	3.205075e-09	3.129989e-09	2.086801e-09	2.975844e-09	3.209844e-09	3.284931e-09	3.206594e-09	3.281681e-09	
31	6.291501e-06	1.177531e-05	1.217060e-05	3.952897e-07	1.254878e-05	7.905793e-07	6.274390e-06	6.669680e-06	7.064970e-06	1.294407e-05	1.333936e-05	4.710342e-06	5.105632e-06	5.500921e-06	5.500921e-06	5.896211e-06	1.098473e-05	1.725912e-05	1.138002e-05	1.217060e-05	1.256589e-05	9.815974e-06	1.021126e-05	1.060655e-05	1.100184e-05	1.139713e-05	1.179242e-05	1.609036e-05	1.648565e-05	1.648565e-05	5.492925e-06	5.888215e-06	6.283504e-06	6.678794e-06	1.138114e-05	1.176732e-05	1.804171e-05	1.726024e-05	1.216261e-05	1.020327e-05	1.059856e-05	1.099385e-05	1.609148e-05	1.687295e-05	1.687295e-05	1.687295e-05	1.647766e-05	1.098585e-05	1.566617e-05	1.689805e-05	1.729334e-05	1.688094e-05	1.727623e-05	
32	0.000000e+00	0.000000e+00	0.000000e+00	0.000000e+00	0.000000e+00	0.000000e+00	0.000000e+00	0.000000e+00	0.000000e+00	0.000000e+00	0.000000e+00	0.000000e+00	0.000000e+00	0.000000e+00	0.000000e+00	0.000000e+00	0.000000e+00	0.000000e+00	0.000000e+00	0.000000e+00	0.000000e+00	0.000000e+00	0.000000e+00	0.000000e+00	0.000000e+00	0.000000e+00	0.000000e+00	0.000000e+00	0.000000e+00	0.000000e+00	0.000000e+00	0.000000e+00	0.000000e+00	0.000000e+00	0.000000e+00	0.000000e+00	0.000000e+00	0.000000e+00	0.000000e+00	0.000000e+00	0.000000e+00	0.000000e+00	0.000000e+00	0.000000e+00	0.000000e+00	0.000000e+00	0.000000e+00	0.000000e+00	0.000000e+00	0.000000e+00	0.000000e+00	0.000000e+00	0.000000e+00	
33	5.328165e-07	9.972311e-07	1.030708e-06	3.347641e-08	1.062735e-06	6.695282e-08	5.313675e-07	5.648439e-07	5.983203e-07	1.096211e-06	1.129688e-06	3.989109e-07	4.323873e-07	4.658637e-07	4.658637e-07	4.993401e-07	9.302783e-07	1.461646e-06	9.637547e-07	1.030708e-06	1.064184e-06	8.312981e-07	8.647745e-07	8.982509e-07	9.317273e-07	9.652038e-07	9.986802e-07	1.362666e-06	1.396142e-06	1.396142e-06	4.651865e-07	4.986629e-07	5.321393e-07	5.656157e-07	9.638494e-07	9.965540e-07	1.527921e-06	1.461740e-06	1.030030e-06	8.640973e-07	8.975738e-07	9.310502e-07	1.362760e-06	1.428941e-06	1.428941e-06	1.428941e-06	1.395465e-06	9.303730e-07	1.326741e-06	1.431067e-06	1.464544e-06	1.429618e-06	1.463095e-06	
34	5.580005e-23	1.044366e-22	1.079425e-22	3.505870e-24	1.112966e-22	7.011740e-24	5.564830e-23	5.915417e-23	6.266004e-23	1.148025e-22	1.183083e-22	4.177657e-23	4.528244e-23	4.878831e-23	4.878831e-23	5.229418e-23	9.742487e-23	1.530732e-22	1.009307e-22	1.079425e-22	1.114483e-22	8.705901e-23	9.056488e-23	9.407075e-23	9.757662e-23	1.010825e-22	1.045884e-22	1.427073e-22	1.462132e-22	1.462132e-22	4.871739e-23	5.222326e-23	5.572913e-23	5.923500e-23	1.009406e-22	1.043657e-22	1.600140e-22	1.530831e-22	1.078716e-22	9.049396e-23	9.399983e-23	9.750570e-23	1.427172e-22	1.496481e-22	1.496481e-22	1.496481e-22	1.461423e-22	9.743478e-23	1.389451e-22	1.498708e-22	1.533767e-22	1.497190e-22	1.532249e-22	
35	2.211240e-20	4.138605e-20	4.277536e-20	1.389303e-21	4.410453e-20	2.778607e-21	2.205226e-20	2.344157e-20	2.483087e-20	4.549383e-20	4.688313e-20	1.655519e-20	1.794449e-20	1.933379e-20	1.933379e-20	2.072310e-20	3.860745e-20	6.065971e-20	3.999675e-20	4.277536e-20	4.416466e-20	3.449967e-20	3.588898e-20	3.727828e-20	3.866758e-20	4.005689e-20	4.144619e-20	5.655194e-20	5.794124e-20	5.794124e-20	1.930569e-20	2.069499e-20	2.208429e-20	2.347360e-20	4.000068e-20	4.135795e-20	6.341021e-20	6.066364e-20	4.274725e-20	3.586087e-20	3.725018e-20	3.863948e-20	5.655587e-20	5.930244e-20	5.930244e-20	5.930244e-20	5.791314e-20	3.861138e-20	5.506105e-20	5.939068e-20	6.077998e-20	5.933054e-20	6.071985e-20	
36	3.773372e-26	7.062326e-26	7.299404e-26	2.370778e-27	7.526220e-26	4.741555e-27	3.763110e-26	4.000188e-26	4.237266e-26	7.763298e-26	8.000375e-26	2.825061e-26	3.062139e-26	3.299216e-26	3.299216e-26	3.536294e-26	6.588171e-26	1.035128e-25	6.825249e-26	7.299404e-26	7.536482e-26	5.887199e-26	6.124277e-26	6.361355e-26	6.598433e-26	6.835510e-26	7.072588e-26	9.650309e-26	9.887387e-26	9.887387e-26	3.294421e-26	3.531498e-26	3.768576e-26	4.005654e-26	6.825919e-26	7.057531e-26	1.082064e-25	1.035195e-25	7.294608e-26	6.119481e-26	6.356559e-26	6.593637e-26	9.650980e-26	1.011967e-25	1.011967e-25	1.011967e-25	9.882591e-26	6.588841e-26	9.395897e-26	1.013473e-25	1.037180e-25	1.012446e-25	1.036154e-25	
37	3.936694e-11	7.368005e-11	7.615344e-11	2.473392e-12	7.851977e-11	4.946784e-12	3.925988e-11	4.173328e-11	4.420667e-11	8.099316e-11	8.346655e-11	2.947338e-11	3.194677e-11	3.442016e-11	3.442016e-11	3.689355e-11	6.873326e-11	1.079931e-10	7.120665e-11	7.615344e-11	7.862683e-11	6.142015e-11	6.389354e-11	6.636693e-11	6.884032e-11	7.131371e-11	7.378711e-11	1.006800e-10	1.031534e-10	1.031534e-10	3.437013e-11	3.684352e-11	3.931691e-11	4.179030e-11	7.121365e-11	7.363001e-11	1.128899e-10	1.080001e-10	7.610340e-11	6.384350e-11	6.631690e-11	6.879029e-11	1.006870e-10	1.055768e-10	1.055768e-10	1.055768e-10	1.031034e-10	6.874025e-11	9.802579e-11	1.057339e-10	1.082073e-10	1.056268e-10	1.081002e-10	
38	3.562098e-10	6.666902e-10	6.890705e-10	2.238036e-11	7.104821e-10	4.476072e-11	3.552411e-10	3.776214e-10	4.000018e-10	7.328625e-10	7.552429e-10	2.666884e-10	2.890687e-10	3.114491e-10	3.114491e-10	3.338294e-10	6.219294e-10	9.771705e-10	6.443098e-10	6.890705e-10	7.114509e-10	5.557571e-10	5.781374e-10	6.005178e-10	6.228982e-10	6.452785e-10	6.676589e-10	9.109982e-10	9.333785e-10	9.333785e-10	3.109964e-10	3.333767e-10	3.557571e-10	3.781374e-10	6.443731e-10	6.662374e-10	1.021478e-09	9.772338e-10	6.886178e-10	5.776847e-10	6.000651e-10	6.224454e-10	9.110614e-10	9.553062e-10	9.553062e-10	9.553062e-10	9.329258e-10	6.219927e-10	8.869814e-10	9.567276e-10	9.791080e-10	9.557589e-10	9.781392e-10	
39	8.481780e-10	1.587469e-09	1.640759e-09	5.329031e-11	1.691743e-09	1.065806e-10	8.458713e-10	8.991616e-10	9.524519e-10	1.745033e-09	1.798323e-09	6.350168e-10	6.883071e-10	7.415974e-10	7.415974e-10	7.948877e-10	1.480888e-09	2.326759e-09	1.534178e-09	1.640759e-09	1.694049e-09	1.323324e-09	1.376614e-09	1.429904e-09	1.483195e-09	1.536485e-09	1.589775e-09	2.169195e-09	2.222485e-09	2.222485e-09	7.405194e-10	7.938097e-10	8.471000e-10	9.003903e-10	1.534329e-09	1.586391e-09	2.432262e-09	2.326910e-09	1.639681e-09	1.375536e-09	1.428826e-09	1.482117e-09	2.169346e-09	2.274698e-09	2.274698e-09	2.274698e-09	2.221407e-09	1.481039e-09	2.112008e-09	2.278082e-09	2.331373e-09	2.275776e-09	2.329066e-09	
40	1.552547e-12	2.905782e-12	3.003327e-12	9.754524e-14	3.096650e-12	1.950905e-13	1.548325e-12	1.645870e-12	1.743416e-12	3.194196e-12	3.291741e-12	1.162366e-12	1.259912e-12	1.357457e-12	1.357457e-12	1.455002e-12	2.710692e-12	4.259017e-12	2.808237e-12	3.003327e-12	3.100873e-12	2.422278e-12	2.519823e-12	2.617369e-12	2.714914e-12	2.812459e-12	2.910004e-12	3.970603e-12	4.068149e-12	4.068149e-12	1.355484e-12	1.453029e-12	1.550574e-12	1.648119e-12	2.808513e-12	2.903809e-12	4.452134e-12	4.259293e-12	3.001354e-12	2.517850e-12	2.615395e-12	2.712941e-12	3.970879e-12	4.163721e-12	4.163721e-12	4.163721e-12	4.066175e-12	2.710967e-12	3.865926e-12	4.169916e-12	4.267461e-12	4.165694e-12	4.263239e-12	
41	2.206172e-11	4.129121e-11	4.267733e-11	1.386119e-12	4.400345e-11	2.772239e-12	2.200173e-11	2.338785e-11	2.477397e-11	4.538957e-11	4.677569e-11	1.651725e-11	1.790337e-11	1.928949e-11	1.928949e-11	2.067561e-11	3.851897e-11	6.052070e-11	3.990509e-11	4.267733e-11	4.406345e-11	3.442061e-11	3.580673e-11	3.719285e-11	3.857897e-11	3.996509e-11	4.135121e-11	5.642234e-11	5.780846e-11	5.780846e-11	1.926145e-11	2.064757e-11	2.203369e-11	2.341980e-11	3.990901e-11	4.126317e-11	6.326490e-11	6.052462e-11	4.264929e-11	3.577869e-11	3.716481e-11	3.855093e-11	5.642626e-11	5.916654e-11	5.916654e-11	5.916654e-11	5.778042e-11	3.852289e-11	5.493487e-11	5.925458e-11	6.064070e-11	5.919458e-11	6.058070e-11	