# production  
# Reaction    	CH4		CH2O		CH3O		H		O2		H2		O		OH		H2O		HO2		H2O2		C		CH		CH2		CH2(S)		CH3		CO		CO2		HCO		CH2OH		CH3OH		C2H		C2H2		C2H3		C2H4		C2H5		C2H6		HCCO		CH2CO		HCCOH		N		NH		NH2		NH3		NNH		NO		NO2		N2O		HNO		CN		HCN		H2CN		HCNN		HCNO		HOCN		HNCO		NCO		N2		AR		C3H7		C3H8		CH2CHO		CH3CHO	

time : 1.000000e-02	
delta T : 1.004635e-04

0	9.806251e-10	1.835360e-09	1.896972e-09	6.161185e-11	1.955917e-09	1.232237e-10	9.779583e-10	1.039570e-09	1.101182e-09	2.017528e-09	2.079140e-09	7.341778e-10	7.957896e-10	8.574014e-10	8.574014e-10	9.190133e-10	1.712136e-09	2.690094e-09	1.773748e-09	1.896972e-09	1.958583e-09	1.529967e-09	1.591579e-09	1.653191e-09	1.714803e-09	1.776415e-09	1.838027e-09	2.507926e-09	2.569537e-09	2.569537e-09	8.561551e-10	9.177670e-10	9.793788e-10	1.040991e-09	1.773922e-09	1.834113e-09	2.812072e-09	2.690268e-09	1.895725e-09	1.590333e-09	1.651945e-09	1.713557e-09	2.508100e-09	2.629903e-09	2.629903e-09	2.629903e-09	2.568291e-09	1.712310e-09	2.441809e-09	2.633816e-09	2.695428e-09	2.631149e-09	2.692761e-09	
1	7.201674e-08	1.347881e-07	1.393129e-07	4.524751e-09	1.436418e-07	9.049502e-09	7.182089e-08	7.634564e-08	8.087039e-08	1.481665e-07	1.526913e-07	5.391774e-08	5.844249e-08	6.296724e-08	6.296724e-08	6.749199e-08	1.257386e-07	1.975595e-07	1.302634e-07	1.393129e-07	1.438376e-07	1.123602e-07	1.168850e-07	1.214097e-07	1.259345e-07	1.304592e-07	1.349840e-07	1.841811e-07	1.887059e-07	1.887059e-07	6.287571e-08	6.740046e-08	7.192521e-08	7.644996e-08	1.302762e-07	1.346966e-07	2.065175e-07	1.975723e-07	1.392213e-07	1.167934e-07	1.213182e-07	1.258429e-07	1.841939e-07	1.931391e-07	1.931391e-07	1.931391e-07	1.886143e-07	1.257514e-07	1.793255e-07	1.934265e-07	1.979512e-07	1.932306e-07	1.977554e-07	
2	4.817128e-09	9.015844e-09	9.318500e-09	3.026561e-10	9.608056e-09	6.053122e-10	4.804028e-09	5.106684e-09	5.409340e-09	9.910712e-09	1.021337e-08	3.606504e-09	3.909160e-09	4.211816e-09	4.211816e-09	4.514472e-09	8.410532e-09	1.321456e-08	8.713188e-09	9.318500e-09	9.621156e-09	7.515664e-09	7.818320e-09	8.120976e-09	8.423632e-09	8.726289e-09	9.028945e-09	1.231969e-08	1.262235e-08	1.262235e-08	4.205694e-09	4.508350e-09	4.811006e-09	5.113662e-09	8.714044e-09	9.009722e-09	1.381375e-08	1.321542e-08	9.312378e-09	7.812198e-09	8.114854e-09	8.417510e-09	1.232055e-08	1.291888e-08	1.291888e-08	1.291888e-08	1.261623e-08	8.411388e-09	1.199491e-08	1.293810e-08	1.324076e-08	1.292500e-08	1.322766e-08	
3	9.097054e-25	1.702625e-24	1.759781e-24	5.715602e-26	1.814463e-24	1.143120e-25	9.072314e-25	9.643874e-25	1.021543e-24	1.871619e-24	1.928775e-24	6.810813e-25	7.382373e-25	7.953934e-25	7.953934e-25	8.525494e-25	1.588313e-24	2.495544e-24	1.645469e-24	1.759781e-24	1.816937e-24	1.419319e-24	1.476475e-24	1.533631e-24	1.590787e-24	1.647943e-24	1.705099e-24	2.326550e-24	2.383706e-24	2.383706e-24	7.942372e-25	8.513932e-25	9.085492e-25	9.657052e-25	1.645630e-24	1.701469e-24	2.608700e-24	2.495706e-24	1.758625e-24	1.475318e-24	1.532474e-24	1.589631e-24	2.326712e-24	2.439706e-24	2.439706e-24	2.439706e-24	2.382550e-24	1.588474e-24	2.265215e-24	2.443336e-24	2.500492e-24	2.440862e-24	2.498018e-24	
4	1.278244e-15	2.392389e-15	2.472700e-15	8.031098e-17	2.549535e-15	1.606220e-16	1.274768e-15	1.355079e-15	1.435390e-15	2.629846e-15	2.710157e-15	9.569999e-16	1.037311e-15	1.117622e-15	1.117622e-15	1.197933e-15	2.231768e-15	3.506535e-15	2.312079e-15	2.472700e-15	2.553011e-15	1.994311e-15	2.074622e-15	2.154933e-15	2.235244e-15	2.315555e-15	2.395866e-15	3.269078e-15	3.349389e-15	3.349389e-15	1.115997e-15	1.196308e-15	1.276619e-15	1.356930e-15	2.312306e-15	2.390765e-15	3.665533e-15	3.506762e-15	2.471076e-15	2.072997e-15	2.153308e-15	2.233619e-15	3.269306e-15	3.428076e-15	3.428076e-15	3.428076e-15	3.347765e-15	2.231995e-15	3.182895e-15	3.433177e-15	3.513488e-15	3.429700e-15	3.510011e-15	
5	3.235022e-17	6.054739e-17	6.257993e-17	2.032537e-18	6.452449e-17	4.065074e-18	3.226224e-17	3.429478e-17	3.632732e-17	6.655702e-17	6.858956e-17	2.422007e-17	2.625261e-17	2.828515e-17	2.828515e-17	3.031768e-17	5.648232e-17	8.874456e-17	5.851485e-17	6.257993e-17	6.461246e-17	5.047268e-17	5.250522e-17	5.453776e-17	5.657029e-17	5.860283e-17	6.063537e-17	8.273493e-17	8.476746e-17	8.476746e-17	2.824403e-17	3.027657e-17	3.230911e-17	3.434164e-17	5.852060e-17	6.050627e-17	9.276852e-17	8.875030e-17	6.253881e-17	5.246410e-17	5.449664e-17	5.652918e-17	8.274067e-17	8.675888e-17	8.675888e-17	8.675888e-17	8.472635e-17	5.648806e-17	8.055377e-17	8.688798e-17	8.892051e-17	8.680000e-17	8.883254e-17	
6	3.235022e-17	6.054739e-17	6.257993e-17	2.032537e-18	6.452449e-17	4.065074e-18	3.226224e-17	3.429478e-17	3.632732e-17	6.655702e-17	6.858956e-17	2.422007e-17	2.625261e-17	2.828515e-17	2.828515e-17	3.031768e-17	5.648232e-17	8.874456e-17	5.851485e-17	6.257993e-17	6.461246e-17	5.047268e-17	5.250522e-17	5.453776e-17	5.657029e-17	5.860283e-17	6.063537e-17	8.273493e-17	8.476746e-17	8.476746e-17	2.824403e-17	3.027657e-17	3.230911e-17	3.434164e-17	5.852060e-17	6.050627e-17	9.276852e-17	8.875030e-17	6.253881e-17	5.246410e-17	5.449664e-17	5.652918e-17	8.274067e-17	8.675888e-17	8.675888e-17	8.675888e-17	8.472635e-17	5.648806e-17	8.055377e-17	8.688798e-17	8.892051e-17	8.680000e-17	8.883254e-17	
7	3.128406e-07	5.855193e-07	6.051748e-07	1.965551e-08	6.239796e-07	3.931102e-08	3.119898e-07	3.316453e-07	3.513008e-07	6.436351e-07	6.632906e-07	2.342185e-07	2.538740e-07	2.735296e-07	2.735296e-07	2.931851e-07	5.462083e-07	8.581981e-07	5.658638e-07	6.051748e-07	6.248303e-07	4.880926e-07	5.077481e-07	5.274036e-07	5.470591e-07	5.667146e-07	5.863701e-07	8.000824e-07	8.197379e-07	8.197379e-07	2.731319e-07	2.927875e-07	3.124430e-07	3.320985e-07	5.659194e-07	5.851217e-07	8.971115e-07	8.582537e-07	6.047772e-07	5.073505e-07	5.270060e-07	5.466615e-07	8.001379e-07	8.389958e-07	8.389958e-07	8.389958e-07	8.193403e-07	5.462639e-07	7.789897e-07	8.402442e-07	8.598997e-07	8.393934e-07	8.590489e-07	
8	4.517286e-04	8.454653e-04	8.738470e-04	2.838173e-05	9.010003e-04	5.676346e-05	4.505001e-04	4.788819e-04	5.072636e-04	9.293820e-04	9.577637e-04	3.382017e-04	3.665835e-04	3.949652e-04	3.949652e-04	4.233469e-04	7.887019e-04	1.239202e-03	8.170836e-04	8.738470e-04	9.022288e-04	7.047852e-04	7.331669e-04	7.615486e-04	7.899304e-04	8.183121e-04	8.466938e-04	1.155285e-03	1.183667e-03	1.183667e-03	3.943911e-04	4.227728e-04	4.511545e-04	4.795362e-04	8.171638e-04	8.448912e-04	1.295391e-03	1.239282e-03	8.732729e-04	7.325928e-04	7.609745e-04	7.893562e-04	1.155366e-03	1.211475e-03	1.211475e-03	1.211475e-03	1.183093e-03	7.887821e-04	1.124828e-03	1.213277e-03	1.241659e-03	1.212049e-03	1.240430e-03	
9	1.775607e-13	3.323265e-13	3.434825e-13	1.115599e-14	3.541556e-13	2.231198e-14	1.770778e-13	1.882338e-13	1.993898e-13	3.653116e-13	3.764676e-13	1.329367e-13	1.440927e-13	1.552487e-13	1.552487e-13	1.664047e-13	3.100146e-13	4.870924e-13	3.211705e-13	3.434825e-13	3.546385e-13	2.770295e-13	2.881855e-13	2.993415e-13	3.104974e-13	3.216534e-13	3.328094e-13	4.541073e-13	4.652633e-13	4.652633e-13	1.550231e-13	1.661790e-13	1.773350e-13	1.884910e-13	3.212021e-13	3.321009e-13	5.091787e-13	4.871239e-13	3.432569e-13	2.879598e-13	2.991158e-13	3.102718e-13	4.541388e-13	4.761936e-13	4.761936e-13	4.761936e-13	4.650376e-13	3.100461e-13	4.421356e-13	4.769022e-13	4.880581e-13	4.764193e-13	4.875753e-13	
10	1.775607e-13	3.323265e-13	3.434825e-13	1.115599e-14	3.541556e-13	2.231198e-14	1.770778e-13	1.882338e-13	1.993898e-13	3.653116e-13	3.764676e-13	1.329367e-13	1.440927e-13	1.552487e-13	1.552487e-13	1.664047e-13	3.100146e-13	4.870924e-13	3.211705e-13	3.434825e-13	3.546385e-13	2.770295e-13	2.881855e-13	2.993415e-13	3.104974e-13	3.216534e-13	3.328094e-13	4.541073e-13	4.652633e-13	4.652633e-13	1.550231e-13	1.661790e-13	1.773350e-13	1.884910e-13	3.212021e-13	3.321009e-13	5.091787e-13	4.871239e-13	3.432569e-13	2.879598e-13	2.991158e-13	3.102718e-13	4.541388e-13	4.761936e-13	4.761936e-13	4.761936e-13	4.650376e-13	3.100461e-13	4.421356e-13	4.769022e-13	4.880581e-13	4.764193e-13	4.875753e-13	
11	1.224114e-06	2.291079e-06	2.367989e-06	7.691006e-08	2.441570e-06	1.538201e-07	1.220785e-06	1.297695e-06	1.374605e-06	2.518480e-06	2.595390e-06	9.164739e-07	9.933840e-07	1.070294e-06	1.070294e-06	1.147204e-06	2.137259e-06	3.358044e-06	2.214169e-06	2.367989e-06	2.444899e-06	1.909858e-06	1.986768e-06	2.063678e-06	2.140588e-06	2.217498e-06	2.294408e-06	3.130643e-06	3.207553e-06	3.207553e-06	1.068738e-06	1.145648e-06	1.222558e-06	1.299468e-06	2.214387e-06	2.289523e-06	3.510308e-06	3.358262e-06	2.366433e-06	1.985212e-06	2.062122e-06	2.139032e-06	3.130860e-06	3.282907e-06	3.282907e-06	3.282907e-06	3.205997e-06	2.137476e-06	3.048109e-06	3.287792e-06	3.364702e-06	3.284463e-06	3.361373e-06	
12	3.520583e-16	6.589201e-16	6.810397e-16	2.211953e-17	7.022017e-16	4.423905e-17	3.511009e-16	3.732204e-16	3.953399e-16	7.243213e-16	7.464408e-16	2.635802e-16	2.856997e-16	3.078193e-16	3.078193e-16	3.299388e-16	6.146811e-16	9.657819e-16	6.368006e-16	6.810397e-16	7.031592e-16	5.492799e-16	5.713995e-16	5.935190e-16	6.156385e-16	6.377580e-16	6.598776e-16	9.003808e-16	9.225003e-16	9.225003e-16	3.073718e-16	3.294913e-16	3.516109e-16	3.737304e-16	6.368631e-16	6.584727e-16	1.009574e-15	9.658445e-16	6.805922e-16	5.709520e-16	5.930715e-16	6.151911e-16	9.004434e-16	9.441724e-16	9.441724e-16	9.441724e-16	9.220529e-16	6.147436e-16	8.766440e-16	9.455773e-16	9.676968e-16	9.446199e-16	9.667394e-16	
13	1.113135e-11	2.083368e-11	2.153305e-11	6.993731e-13	2.220215e-11	1.398746e-12	1.110108e-11	1.180045e-11	1.249982e-11	2.290152e-11	2.360090e-11	8.333855e-12	9.033228e-12	9.732601e-12	9.732601e-12	1.043197e-11	1.943493e-11	3.053601e-11	2.013430e-11	2.153305e-11	2.223242e-11	1.736708e-11	1.806646e-11	1.876583e-11	1.946520e-11	2.016458e-11	2.086395e-11	2.846816e-11	2.916753e-11	2.916753e-11	9.718454e-12	1.041783e-11	1.111720e-11	1.181657e-11	2.013628e-11	2.081953e-11	3.192060e-11	3.053798e-11	2.151890e-11	1.805231e-11	1.875168e-11	1.945105e-11	2.847014e-11	2.985276e-11	2.985276e-11	2.985276e-11	2.915338e-11	1.943691e-11	2.771765e-11	2.989718e-11	3.059655e-11	2.986690e-11	3.056628e-11	
14	4.429357e-09	8.290082e-09	8.568374e-09	2.782927e-10	8.834621e-09	5.565854e-10	4.417311e-09	4.695603e-09	4.973896e-09	9.112914e-09	9.391207e-09	3.316186e-09	3.594478e-09	3.872771e-09	3.872771e-09	4.151064e-09	7.733496e-09	1.215081e-08	8.011789e-09	8.568374e-09	8.846667e-09	6.910664e-09	7.188957e-09	7.467249e-09	7.745542e-09	8.023835e-09	8.302128e-09	1.132797e-08	1.160627e-08	1.160627e-08	3.867142e-09	4.145434e-09	4.423727e-09	4.702020e-09	8.012576e-09	8.284452e-09	1.270176e-08	1.215159e-08	8.562745e-09	7.183327e-09	7.461620e-09	7.739913e-09	1.132876e-08	1.187893e-08	1.187893e-08	1.187893e-08	1.160064e-08	7.734283e-09	1.102933e-08	1.189661e-08	1.217490e-08	1.188456e-08	1.216285e-08	
15	5.691663e-10	1.065264e-09	1.101024e-09	3.576024e-11	1.135237e-09	7.152047e-11	5.676184e-10	6.033787e-10	6.391389e-10	1.170997e-09	1.206757e-09	4.261254e-10	4.618856e-10	4.976458e-10	4.976458e-10	5.334061e-10	9.937438e-10	1.561362e-09	1.029504e-09	1.101024e-09	1.136785e-09	8.880109e-10	9.237712e-10	9.595314e-10	9.952917e-10	1.031052e-09	1.066812e-09	1.455629e-09	1.491390e-09	1.491390e-09	4.969224e-10	5.326827e-10	5.684429e-10	6.042032e-10	1.029605e-09	1.064541e-09	1.632159e-09	1.561463e-09	1.100301e-09	9.230478e-10	9.588080e-10	9.945683e-10	1.455730e-09	1.526426e-09	1.526426e-09	1.526426e-09	1.490666e-09	9.938449e-10	1.417254e-09	1.528698e-09	1.564458e-09	1.527150e-09	1.562910e-09	
16	4.944415e-25	9.254076e-25	9.564729e-25	3.106534e-26	9.861936e-25	6.213068e-26	4.930968e-25	5.241621e-25	5.552275e-25	1.017259e-24	1.048324e-24	3.701801e-25	4.012454e-25	4.323108e-25	4.323108e-25	4.633761e-25	8.632769e-25	1.356374e-24	8.943422e-25	9.564729e-25	9.875383e-25	7.714256e-25	8.024909e-25	8.335562e-25	8.646216e-25	8.956869e-25	9.267522e-25	1.264522e-24	1.295588e-24	1.295588e-24	4.316824e-25	4.627477e-25	4.938130e-25	5.248784e-25	8.944301e-25	9.247792e-25	1.417876e-24	1.356462e-24	9.558445e-25	8.018625e-25	8.329278e-25	8.639932e-25	1.264610e-24	1.326025e-24	1.326025e-24	1.326025e-24	1.294959e-24	8.633647e-25	1.231186e-24	1.327998e-24	1.359063e-24	1.326653e-24	1.357718e-24	
17	2.939105e-14	5.500894e-14	5.685556e-14	1.846615e-15	5.862224e-14	3.693230e-15	2.931112e-14	3.115774e-14	3.300435e-14	6.046886e-14	6.231547e-14	2.200459e-14	2.385121e-14	2.569782e-14	2.569782e-14	2.754444e-14	5.131571e-14	8.062683e-14	5.316233e-14	5.685556e-14	5.870217e-14	4.585580e-14	4.770241e-14	4.954903e-14	5.139564e-14	5.324226e-14	5.508887e-14	7.516692e-14	7.701353e-14	7.701353e-14	2.566047e-14	2.750708e-14	2.935370e-14	3.120031e-14	5.316755e-14	5.497159e-14	8.428271e-14	8.063205e-14	5.681820e-14	4.766506e-14	4.951167e-14	5.135829e-14	7.517214e-14	7.882279e-14	7.882279e-14	7.882279e-14	7.697618e-14	5.132093e-14	7.318528e-14	7.894008e-14	8.078669e-14	7.886015e-14	8.070676e-14	
18	7.243742e-18	1.355755e-17	1.401267e-17	4.551182e-19	1.444808e-17	9.102364e-19	7.224042e-18	7.679160e-18	8.134279e-18	1.490320e-17	1.535832e-17	5.423269e-18	5.878387e-18	6.333506e-18	6.333506e-18	6.788624e-18	1.264731e-17	1.987135e-17	1.310243e-17	1.401267e-17	1.446778e-17	1.130166e-17	1.175677e-17	1.221189e-17	1.266701e-17	1.312213e-17	1.357725e-17	1.852570e-17	1.898082e-17	1.898082e-17	6.324299e-18	6.779417e-18	7.234536e-18	7.689654e-18	1.310372e-17	1.354834e-17	2.077238e-17	1.987264e-17	1.400346e-17	1.174757e-17	1.220269e-17	1.265780e-17	1.852699e-17	1.942673e-17	1.942673e-17	1.942673e-17	1.897161e-17	1.264860e-17	1.803730e-17	1.945564e-17	1.991075e-17	1.943594e-17	1.989105e-17	
19	1.510918e-14	2.827867e-14	2.922797e-14	9.492968e-16	3.013617e-14	1.898594e-15	1.506809e-14	1.601738e-14	1.696668e-14	3.108547e-14	3.203477e-14	1.131199e-14	1.226129e-14	1.321058e-14	1.321058e-14	1.415988e-14	2.638008e-14	4.144816e-14	2.732937e-14	2.922797e-14	3.017726e-14	2.357328e-14	2.452257e-14	2.547187e-14	2.642117e-14	2.737046e-14	2.831976e-14	3.864136e-14	3.959066e-14	3.959066e-14	1.319138e-14	1.414068e-14	1.508997e-14	1.603927e-14	2.733206e-14	2.825947e-14	4.332756e-14	4.145085e-14	2.920876e-14	2.450337e-14	2.545267e-14	2.640196e-14	3.864405e-14	4.052075e-14	4.052075e-14	4.052075e-14	3.957146e-14	2.638276e-14	3.762266e-14	4.058105e-14	4.153035e-14	4.053996e-14	4.148925e-14	
20	1.634107e-17	3.058430e-17	3.161100e-17	1.026695e-18	3.259325e-17	2.053391e-18	1.629663e-17	1.732332e-17	1.835002e-17	3.361995e-17	3.464664e-17	1.223429e-17	1.326098e-17	1.428768e-17	1.428768e-17	1.531437e-17	2.853091e-17	4.482754e-17	2.955761e-17	3.161100e-17	3.263769e-17	2.549527e-17	2.652196e-17	2.754866e-17	2.857535e-17	2.960205e-17	3.062874e-17	4.179189e-17	4.281859e-17	4.281859e-17	1.426691e-17	1.529360e-17	1.632030e-17	1.734699e-17	2.956051e-17	3.056353e-17	4.686016e-17	4.483044e-17	3.159023e-17	2.650119e-17	2.752789e-17	2.855458e-17	4.179480e-17	4.382452e-17	4.382452e-17	4.382452e-17	4.279782e-17	2.853382e-17	4.069013e-17	4.388972e-17	4.491642e-17	4.384528e-17	4.487198e-17	
21	1.078531e-09	2.018603e-09	2.086366e-09	6.776320e-11	2.151196e-09	1.355264e-10	1.075598e-09	1.143361e-09	1.211124e-09	2.218959e-09	2.286722e-09	8.074783e-10	8.752415e-10	9.430047e-10	9.430047e-10	1.010768e-09	1.883076e-09	2.958674e-09	1.950839e-09	2.086366e-09	2.154129e-09	1.682720e-09	1.750483e-09	1.818246e-09	1.886009e-09	1.953773e-09	2.021536e-09	2.758318e-09	2.826081e-09	2.826081e-09	9.416339e-10	1.009397e-09	1.077160e-09	1.144924e-09	1.951031e-09	2.017232e-09	3.092830e-09	2.958866e-09	2.084995e-09	1.749112e-09	1.816875e-09	1.884639e-09	2.758509e-09	2.892473e-09	2.892473e-09	2.892473e-09	2.824710e-09	1.883268e-09	2.685600e-09	2.896777e-09	2.964540e-09	2.893844e-09	2.961607e-09	
22	3.781666e-13	7.077850e-13	7.315448e-13	2.375989e-14	7.542763e-13	4.751977e-14	3.771381e-13	4.008980e-13	4.246579e-13	7.780362e-13	8.017961e-13	2.831270e-13	3.068869e-13	3.306468e-13	3.306468e-13	3.544067e-13	6.602652e-13	1.037403e-12	6.840251e-13	7.315448e-13	7.553047e-13	5.900140e-13	6.137739e-13	6.375337e-13	6.612936e-13	6.850535e-13	7.088134e-13	9.671521e-13	9.909120e-13	9.909120e-13	3.301662e-13	3.539261e-13	3.776860e-13	4.014458e-13	6.840923e-13	7.073043e-13	1.084442e-12	1.037471e-12	7.310642e-13	6.132932e-13	6.370531e-13	6.608130e-13	9.672193e-13	1.014191e-12	1.014191e-12	1.014191e-12	9.904314e-13	6.603324e-13	9.416550e-13	1.015700e-12	1.039460e-12	1.014672e-12	1.038432e-12	
23	1.213113e-07	2.270489e-07	2.346708e-07	7.621886e-09	2.419628e-07	1.524377e-08	1.209814e-07	1.286033e-07	1.362252e-07	2.495847e-07	2.572065e-07	9.082375e-08	9.844564e-08	1.060675e-07	1.060675e-07	1.136894e-07	2.118051e-07	3.327865e-07	2.194270e-07	2.346708e-07	2.422927e-07	1.892694e-07	1.968913e-07	2.045132e-07	2.121351e-07	2.197569e-07	2.273788e-07	3.102508e-07	3.178727e-07	3.178727e-07	1.059133e-07	1.135352e-07	1.211571e-07	1.287790e-07	2.194486e-07	2.268947e-07	3.478761e-07	3.328081e-07	2.345166e-07	1.967371e-07	2.043590e-07	2.119809e-07	3.102723e-07	3.253404e-07	3.253404e-07	3.253404e-07	3.177185e-07	2.118267e-07	3.020716e-07	3.258245e-07	3.334463e-07	3.254945e-07	3.331164e-07	
24	3.266354e-21	6.113381e-21	6.318603e-21	2.052223e-22	6.514942e-21	4.104445e-22	3.257471e-21	3.462693e-21	3.667916e-21	6.720164e-21	6.925387e-21	2.445465e-21	2.650687e-21	2.855910e-21	2.855910e-21	3.061132e-21	5.702936e-21	8.960407e-21	5.908158e-21	6.318603e-21	6.523825e-21	5.096152e-21	5.301375e-21	5.506597e-21	5.711819e-21	5.917041e-21	6.122264e-21	8.353623e-21	8.558846e-21	8.558846e-21	2.851758e-21	3.056980e-21	3.262203e-21	3.467425e-21	5.908739e-21	6.109229e-21	9.366700e-21	8.960987e-21	6.314451e-21	5.297223e-21	5.502445e-21	5.707668e-21	8.354204e-21	8.759916e-21	8.759916e-21	8.759916e-21	8.554694e-21	5.703516e-21	8.133396e-21	8.772951e-21	8.978173e-21	8.764068e-21	8.969290e-21	
25	4.577109e-15	8.566619e-15	8.854194e-15	2.875759e-16	9.129323e-15	5.751518e-16	4.564661e-15	4.852237e-15	5.139813e-15	9.416899e-15	9.704474e-15	3.426806e-15	3.714381e-15	4.001957e-15	4.001957e-15	4.289533e-15	7.991467e-15	1.255613e-14	8.279043e-15	8.854194e-15	9.141770e-15	7.141187e-15	7.428763e-15	7.716339e-15	8.003915e-15	8.291490e-15	8.579066e-15	1.170585e-14	1.199342e-14	1.199342e-14	3.996140e-15	4.283716e-15	4.571292e-15	4.858868e-15	8.279856e-15	8.560801e-15	1.312546e-14	1.255694e-14	8.848377e-15	7.422945e-15	7.710521e-15	7.998097e-15	1.170666e-14	1.227518e-14	1.227518e-14	1.227518e-14	1.198761e-14	7.992280e-15	1.139725e-14	1.229345e-14	1.258102e-14	1.228100e-14	1.256858e-14	
26	2.273332e-14	4.254818e-14	4.397650e-14	1.428315e-15	4.534299e-14	2.856630e-15	2.267149e-14	2.409981e-14	2.552812e-14	4.677130e-14	4.819962e-14	1.702006e-14	1.844837e-14	1.987669e-14	1.987669e-14	2.130500e-14	3.969155e-14	6.236305e-14	4.111987e-14	4.397650e-14	4.540481e-14	3.546843e-14	3.689675e-14	3.832506e-14	3.975338e-14	4.118169e-14	4.261001e-14	5.813993e-14	5.956824e-14	5.956824e-14	1.984780e-14	2.127611e-14	2.270443e-14	2.413274e-14	4.112391e-14	4.251929e-14	6.519078e-14	6.236708e-14	4.394760e-14	3.686785e-14	3.829617e-14	3.972448e-14	5.814396e-14	6.096766e-14	6.096766e-14	6.096766e-14	5.953935e-14	3.969559e-14	5.660718e-14	6.105838e-14	6.248670e-14	6.099656e-14	6.242487e-14	
27	5.152393e-09	9.643332e-09	9.967053e-09	3.237205e-10	1.027676e-08	6.474409e-10	5.138380e-09	5.462101e-09	5.785821e-09	1.060048e-08	1.092420e-08	3.857511e-09	4.181231e-09	4.504952e-09	4.504952e-09	4.828672e-09	8.995891e-09	1.413427e-08	9.319612e-09	9.967053e-09	1.029077e-08	8.038742e-09	8.362462e-09	8.686183e-09	9.009903e-09	9.333624e-09	9.657344e-09	1.317712e-08	1.350084e-08	1.350084e-08	4.498403e-09	4.822124e-09	5.145844e-09	5.469565e-09	9.320527e-09	9.636784e-09	1.477516e-08	1.413519e-08	9.960504e-09	8.355914e-09	8.679634e-09	9.003355e-09	1.317804e-08	1.381801e-08	1.381801e-08	1.381801e-08	1.349429e-08	8.996806e-09	1.282973e-08	1.383858e-08	1.416230e-08	1.382456e-08	1.414828e-08	
28	2.508049e-04	4.694120e-04	4.851698e-04	1.575786e-05	5.002456e-04	3.151572e-05	2.501228e-04	2.658807e-04	2.816385e-04	5.160035e-04	5.317613e-04	1.877735e-04	2.035313e-04	2.192892e-04	2.192892e-04	2.350470e-04	4.378963e-04	6.880191e-04	4.536541e-04	4.851698e-04	5.009277e-04	3.913048e-04	4.070626e-04	4.228205e-04	4.385783e-04	4.543362e-04	4.700941e-04	6.414276e-04	6.571854e-04	6.571854e-04	2.189704e-04	2.347283e-04	2.504861e-04	2.662440e-04	4.536987e-04	4.690932e-04	7.192160e-04	6.880636e-04	4.848511e-04	4.067439e-04	4.225017e-04	4.382596e-04	6.414721e-04	6.726245e-04	6.726245e-04	6.726245e-04	6.568667e-04	4.379408e-04	6.245175e-04	6.736254e-04	6.893832e-04	6.729433e-04	6.887011e-04	
29	2.444404e-04	4.575001e-04	4.728581e-04	1.535798e-05	4.875513e-04	3.071597e-05	2.437757e-04	2.591336e-04	2.744916e-04	5.029093e-04	5.182673e-04	1.830085e-04	1.983665e-04	2.137245e-04	2.137245e-04	2.290824e-04	4.267841e-04	6.705598e-04	4.421421e-04	4.728581e-04	4.882161e-04	3.813750e-04	3.967329e-04	4.120909e-04	4.274489e-04	4.428069e-04	4.581649e-04	6.251506e-04	6.405086e-04	6.405086e-04	2.134138e-04	2.287718e-04	2.441298e-04	2.594877e-04	4.421855e-04	4.571894e-04	7.009651e-04	6.706032e-04	4.725474e-04	3.964223e-04	4.117802e-04	4.271382e-04	6.251940e-04	6.555559e-04	6.555559e-04	6.555559e-04	6.401979e-04	4.268276e-04	6.086697e-04	6.565313e-04	6.718893e-04	6.558666e-04	6.712246e-04	
30	4.063841e-07	7.605974e-07	7.861302e-07	2.553277e-08	8.105578e-07	5.106553e-08	4.052789e-07	4.308116e-07	4.563444e-07	8.360905e-07	8.616233e-07	3.042530e-07	3.297858e-07	3.553185e-07	3.553185e-07	3.808513e-07	7.095319e-07	1.114811e-06	7.350646e-07	7.861302e-07	8.116629e-07	6.340388e-07	6.595715e-07	6.851043e-07	7.106371e-07	7.361698e-07	7.617026e-07	1.039318e-06	1.064850e-06	1.064850e-06	3.548020e-07	3.803348e-07	4.058676e-07	4.314003e-07	7.351368e-07	7.600809e-07	1.165360e-06	1.114883e-06	7.856137e-07	6.590550e-07	6.845878e-07	7.101206e-07	1.039390e-06	1.089867e-06	1.089867e-06	1.089867e-06	1.064334e-06	7.096041e-07	1.011918e-06	1.091488e-06	1.117021e-06	1.090383e-06	1.115916e-06	
31	1.148991e-03	2.150477e-03	2.222667e-03	7.219014e-05	2.291733e-03	1.443803e-04	1.145866e-03	1.218056e-03	1.290247e-03	2.363923e-03	2.436113e-03	8.602305e-04	9.324207e-04	1.004611e-03	1.004611e-03	1.076801e-03	2.006097e-03	3.151963e-03	2.078287e-03	2.222667e-03	2.294857e-03	1.792651e-03	1.864841e-03	1.937031e-03	2.009222e-03	2.081412e-03	2.153602e-03	2.938517e-03	3.010708e-03	3.010708e-03	1.003150e-03	1.075341e-03	1.147531e-03	1.219721e-03	2.078491e-03	2.149017e-03	3.294883e-03	3.152167e-03	2.221207e-03	1.863381e-03	1.935571e-03	2.007761e-03	2.938722e-03	3.081437e-03	3.081437e-03	3.081437e-03	3.009247e-03	2.006301e-03	2.861049e-03	3.086023e-03	3.158213e-03	3.082898e-03	3.155088e-03	
32	0.000000e+00	0.000000e+00	0.000000e+00	0.000000e+00	0.000000e+00	0.000000e+00	0.000000e+00	0.000000e+00	0.000000e+00	0.000000e+00	0.000000e+00	0.000000e+00	0.000000e+00	0.000000e+00	0.000000e+00	0.000000e+00	0.000000e+00	0.000000e+00	0.000000e+00	0.000000e+00	0.000000e+00	0.000000e+00	0.000000e+00	0.000000e+00	0.000000e+00	0.000000e+00	0.000000e+00	0.000000e+00	0.000000e+00	0.000000e+00	0.000000e+00	0.000000e+00	0.000000e+00	0.000000e+00	0.000000e+00	0.000000e+00	0.000000e+00	0.000000e+00	0.000000e+00	0.000000e+00	0.000000e+00	0.000000e+00	0.000000e+00	0.000000e+00	0.000000e+00	0.000000e+00	0.000000e+00	0.000000e+00	0.000000e+00	0.000000e+00	0.000000e+00	0.000000e+00	0.000000e+00	
33	9.720834e-05	1.819373e-04	1.880448e-04	6.107518e-06	1.938880e-04	1.221504e-05	9.694398e-05	1.030515e-04	1.091590e-04	1.999955e-04	2.061030e-04	7.277827e-05	7.888579e-05	8.499331e-05	8.499331e-05	9.110082e-05	1.697222e-04	2.666662e-04	1.758298e-04	1.880448e-04	1.941523e-04	1.516641e-04	1.577716e-04	1.638791e-04	1.699866e-04	1.760941e-04	1.822016e-04	2.486080e-04	2.547156e-04	2.547156e-04	8.486976e-05	9.097728e-05	9.708479e-05	1.031923e-04	1.758470e-04	1.818137e-04	2.787577e-04	2.666835e-04	1.879213e-04	1.576480e-04	1.637555e-04	1.698631e-04	2.486253e-04	2.606995e-04	2.606995e-04	2.606995e-04	2.545920e-04	1.697395e-04	2.420540e-04	2.610874e-04	2.671950e-04	2.608231e-04	2.669306e-04	
34	2.506535e-20	4.691285e-20	4.848769e-20	1.574834e-21	4.999436e-20	3.149669e-21	2.499718e-20	2.657201e-20	2.814685e-20	5.156919e-20	5.314403e-20	1.876601e-20	2.034084e-20	2.191568e-20	2.191568e-20	2.349051e-20	4.376319e-20	6.876036e-20	4.533802e-20	4.848769e-20	5.006252e-20	3.910685e-20	4.068168e-20	4.225652e-20	4.383135e-20	4.540619e-20	4.698102e-20	6.410403e-20	6.567886e-20	6.567886e-20	2.188382e-20	2.345865e-20	2.503349e-20	2.660832e-20	4.534247e-20	4.688100e-20	7.187818e-20	6.876482e-20	4.845583e-20	4.064983e-20	4.222466e-20	4.379950e-20	6.410848e-20	6.722184e-20	6.722184e-20	6.722184e-20	6.564701e-20	4.376764e-20	6.241405e-20	6.732186e-20	6.889670e-20	6.725370e-20	6.882853e-20	
35	9.439828e-18	1.766779e-17	1.826089e-17	5.930964e-19	1.882831e-17	1.186193e-18	9.414156e-18	1.000725e-17	1.060035e-17	1.942141e-17	2.001450e-17	7.067442e-18	7.660539e-18	8.253635e-18	8.253635e-18	8.846732e-18	1.648160e-17	2.589575e-17	1.707469e-17	1.826089e-17	1.885398e-17	1.472798e-17	1.532108e-17	1.591417e-17	1.650727e-17	1.710037e-17	1.769346e-17	2.414214e-17	2.473523e-17	2.473523e-17	8.241638e-18	8.834734e-18	9.427831e-18	1.002093e-17	1.707637e-17	1.765579e-17	2.706995e-17	2.589743e-17	1.824889e-17	1.530908e-17	1.590218e-17	1.649527e-17	2.414381e-17	2.531633e-17	2.531633e-17	2.531633e-17	2.472324e-17	1.648328e-17	2.350568e-17	2.535400e-17	2.594710e-17	2.532833e-17	2.592143e-17	
36	1.780999e-23	3.333357e-23	3.445256e-23	1.118987e-24	3.552311e-23	2.237973e-24	1.776155e-23	1.888054e-23	1.999953e-23	3.664209e-23	3.776108e-23	1.333404e-23	1.445303e-23	1.557202e-23	1.557202e-23	1.669100e-23	3.109560e-23	4.885715e-23	3.221458e-23	3.445256e-23	3.557154e-23	2.778707e-23	2.890606e-23	3.002505e-23	3.114403e-23	3.226302e-23	3.338201e-23	4.554863e-23	4.666761e-23	4.666761e-23	1.554938e-23	1.666837e-23	1.778735e-23	1.890634e-23	3.221775e-23	3.331093e-23	5.107249e-23	4.886031e-23	3.442992e-23	2.888342e-23	3.000241e-23	3.112140e-23	4.555179e-23	4.776396e-23	4.776396e-23	4.776396e-23	4.664498e-23	3.109876e-23	4.434782e-23	4.783504e-23	4.895402e-23	4.778660e-23	4.890559e-23	
37	9.599959e-09	1.796750e-08	1.857065e-08	6.031573e-10	1.914770e-08	1.206315e-09	9.573851e-09	1.017701e-08	1.078017e-08	1.975086e-08	2.035402e-08	7.187330e-09	7.790487e-09	8.393645e-09	8.393645e-09	8.996802e-09	1.676118e-08	2.633503e-08	1.736434e-08	1.857065e-08	1.917381e-08	1.497782e-08	1.558097e-08	1.618413e-08	1.678729e-08	1.739045e-08	1.799360e-08	2.455167e-08	2.515483e-08	2.515483e-08	8.381443e-09	8.984601e-09	9.587758e-09	1.019092e-08	1.736604e-08	1.795529e-08	2.752915e-08	2.633674e-08	1.855845e-08	1.556877e-08	1.617193e-08	1.677509e-08	2.455337e-08	2.574578e-08	2.574578e-08	2.574578e-08	2.514262e-08	1.676289e-08	2.390441e-08	2.578409e-08	2.638725e-08	2.575798e-08	2.636114e-08	
38	8.660743e-08	1.620964e-07	1.675379e-07	5.441472e-09	1.727438e-07	1.088294e-08	8.637190e-08	9.181337e-08	9.725484e-08	1.781853e-07	1.836267e-07	6.484155e-08	7.028302e-08	7.572449e-08	7.572449e-08	8.116596e-08	1.512134e-07	2.375853e-07	1.566549e-07	1.675379e-07	1.729793e-07	1.351246e-07	1.405660e-07	1.460075e-07	1.514490e-07	1.568905e-07	1.623319e-07	2.214965e-07	2.269379e-07	2.269379e-07	7.561442e-08	8.105589e-08	8.649736e-08	9.193883e-08	1.566703e-07	1.619863e-07	2.483582e-07	2.376007e-07	1.674278e-07	1.404560e-07	1.458974e-07	1.513389e-07	2.215118e-07	2.322693e-07	2.322693e-07	2.322693e-07	2.268279e-07	1.512288e-07	2.156571e-07	2.326149e-07	2.380564e-07	2.323794e-07	2.378209e-07	
39	2.068351e-07	3.871171e-07	4.001124e-07	1.299527e-08	4.125452e-07	2.599055e-08	2.062726e-07	2.192679e-07	2.322631e-07	4.255404e-07	4.385357e-07	1.548540e-07	1.678493e-07	1.808445e-07	1.808445e-07	1.938398e-07	3.611266e-07	5.673992e-07	3.741219e-07	4.001124e-07	4.131077e-07	3.227033e-07	3.356985e-07	3.486938e-07	3.616891e-07	3.746844e-07	3.876796e-07	5.289758e-07	5.419711e-07	5.419711e-07	1.805817e-07	1.935769e-07	2.065722e-07	2.195675e-07	3.741586e-07	3.868542e-07	5.931268e-07	5.674359e-07	3.998495e-07	3.354357e-07	3.484309e-07	3.614262e-07	5.290126e-07	5.547035e-07	5.547035e-07	5.547035e-07	5.417082e-07	3.611633e-07	5.150304e-07	5.555289e-07	5.685242e-07	5.549664e-07	5.679617e-07	
40	6.251438e-12	1.170033e-11	1.209310e-11	3.927726e-13	1.246887e-11	7.855452e-13	6.234437e-12	6.627210e-12	7.019982e-12	1.286165e-11	1.325442e-11	4.680348e-12	5.073121e-12	5.465893e-12	5.465893e-12	5.858666e-12	1.091479e-11	1.714922e-11	1.130756e-11	1.209310e-11	1.248588e-11	9.753469e-12	1.014624e-11	1.053901e-11	1.093179e-11	1.132456e-11	1.171733e-11	1.598791e-11	1.638068e-11	1.638068e-11	5.457948e-12	5.850720e-12	6.243493e-12	6.636266e-12	1.130867e-11	1.169238e-11	1.792682e-11	1.715033e-11	1.208516e-11	1.013830e-11	1.053107e-11	1.092384e-11	1.598902e-11	1.676551e-11	1.676551e-11	1.676551e-11	1.637273e-11	1.091590e-11	1.556641e-11	1.679045e-11	1.718322e-11	1.677345e-11	1.716622e-11	
41	5.759081e-09	1.077882e-08	1.114066e-08	3.618382e-10	1.148684e-08	7.236764e-10	5.743419e-09	6.105257e-09	6.467096e-09	1.184868e-08	1.221051e-08	4.311729e-09	4.673567e-09	5.035405e-09	5.035405e-09	5.397243e-09	1.005515e-08	1.579857e-08	1.041699e-08	1.114066e-08	1.150250e-08	8.985295e-09	9.347134e-09	9.708972e-09	1.007081e-08	1.043265e-08	1.079449e-08	1.472871e-08	1.509055e-08	1.509055e-08	5.028085e-09	5.389924e-09	5.751762e-09	6.113600e-09	1.041801e-08	1.077150e-08	1.651492e-08	1.579959e-08	1.113334e-08	9.339814e-09	9.701652e-09	1.006349e-08	1.472974e-08	1.544507e-08	1.544507e-08	1.544507e-08	1.508323e-08	1.005617e-08	1.434042e-08	1.546805e-08	1.582989e-08	1.545239e-08	1.581423e-08	